+ 0 0 3 tcp 40 ------- 0 0.0 4.0 0 0
- 0 0 3 tcp 40 ------- 0 0.0 4.0 0 0
+ 0 1 3 tcp 40 ------- 1 1.0 4.1 0 1
- 0 1 3 tcp 40 ------- 1 1.0 4.1 0 1
+ 0 2 3 tcp 1000 ------- 2 2.0 4.2 0 2
- 0 2 3 tcp 1000 ------- 2 2.0 4.2 0 2
r 0.020064 0 3 tcp 40 ------- 0 0.0 4.0 0 0
+ 0.020064 3 4 tcp 40 ------- 0 0.0 4.0 0 0
- 0.020064 3 4 tcp 40 ------- 0 0.0 4.0 0 0
r 0.020064 1 3 tcp 40 ------- 1 1.0 4.1 0 1
+ 0.020064 3 4 tcp 40 ------- 1 1.0 4.1 0 1
- 0.020384 3 4 tcp 40 ------- 1 1.0 4.1 0 1
r 0.0216 2 3 tcp 1000 ------- 2 2.0 4.2 0 2
+ 0.0216 3 4 tcp 1000 ------- 2 2.0 4.2 0 2
- 0.0216 3 4 tcp 1000 ------- 2 2.0 4.2 0 2
r 0.070384 3 4 tcp 40 ------- 0 0.0 4.0 0 0
+ 0.070384 4 3 ack 40 ------- 0 4.0 0.0 0 3
- 0.070384 4 3 ack 40 ------- 0 4.0 0.0 0 3
r 0.070704 3 4 tcp 40 ------- 1 1.0 4.1 0 1
+ 0.070704 4 3 ack 40 ------- 1 4.1 1.0 0 4
- 0.070704 4 3 ack 40 ------- 1 4.1 1.0 0 4
r 0.0796 3 4 tcp 1000 ------- 2 2.0 4.2 0 2
+ 0.0796 4 3 ack 40 ------- 2 4.2 2.0 0 5
- 0.0796 4 3 ack 40 ------- 2 4.2 2.0 0 5
r 0.120704 4 3 ack 40 ------- 0 4.0 0.0 0 3
+ 0.120704 3 0 ack 40 ------- 0 4.0 0.0 0 3
- 0.120704 3 0 ack 40 ------- 0 4.0 0.0 0 3
r 0.121024 4 3 ack 40 ------- 1 4.1 1.0 0 4
+ 0.121024 3 1 ack 40 ------- 1 4.1 1.0 0 4
- 0.121024 3 1 ack 40 ------- 1 4.1 1.0 0 4
r 0.12992 4 3 ack 40 ------- 2 4.2 2.0 0 5
+ 0.12992 3 2 ack 40 ------- 2 4.2 2.0 0 5
- 0.12992 3 2 ack 40 ------- 2 4.2 2.0 0 5
r 0.140768 3 0 ack 40 ------- 0 4.0 0.0 0 3
+ 0.140768 0 3 tcp 1040 ------- 0 0.0 4.0 1 6
- 0.140768 0 3 tcp 1040 ------- 0 0.0 4.0 1 6
+ 0.140768 0 3 tcp 1040 ------- 0 0.0 4.0 2 7
r 0.141088 3 1 ack 40 ------- 1 4.1 1.0 0 4
+ 0.141088 1 3 tcp 1040 ------- 1 1.0 4.1 1 8
- 0.141088 1 3 tcp 1040 ------- 1 1.0 4.1 1 8
+ 0.141088 1 3 tcp 1040 ------- 1 1.0 4.1 2 9
- 0.142432 0 3 tcp 1040 ------- 0 0.0 4.0 2 7
- 0.142752 1 3 tcp 1040 ------- 1 1.0 4.1 2 9
r 0.149984 3 2 ack 40 ------- 2 4.2 2.0 0 5
+ 0.149984 2 3 tcp 1000 ------- 2 2.0 4.2 1 10
- 0.149984 2 3 tcp 1000 ------- 2 2.0 4.2 1 10
r 0.162432 0 3 tcp 1040 ------- 0 0.0 4.0 1 6
+ 0.162432 3 4 tcp 1040 ------- 0 0.0 4.0 1 6
- 0.162432 3 4 tcp 1040 ------- 0 0.0 4.0 1 6
r 0.162752 1 3 tcp 1040 ------- 1 1.0 4.1 1 8
+ 0.162752 3 4 tcp 1040 ------- 1 1.0 4.1 1 8
r 0.164096 0 3 tcp 1040 ------- 0 0.0 4.0 2 7
+ 0.164096 3 4 tcp 1040 ------- 0 0.0 4.0 2 7
r 0.164416 1 3 tcp 1040 ------- 1 1.0 4.1 2 9
+ 0.164416 3 4 tcp 1040 ------- 1 1.0 4.1 2 9
- 0.170752 3 4 tcp 1040 ------- 1 1.0 4.1 1 8
r 0.171584 2 3 tcp 1000 ------- 2 2.0 4.2 1 10
+ 0.171584 3 4 tcp 1000 ------- 2 2.0 4.2 1 10
- 0.179072 3 4 tcp 1040 ------- 0 0.0 4.0 2 7
- 0.187392 3 4 tcp 1040 ------- 1 1.0 4.1 2 9
- 0.195712 3 4 tcp 1000 ------- 2 2.0 4.2 1 10
r 0.220752 3 4 tcp 1040 ------- 0 0.0 4.0 1 6
+ 0.220752 4 3 ack 40 ------- 0 4.0 0.0 1 11
- 0.220752 4 3 ack 40 ------- 0 4.0 0.0 1 11
r 0.229072 3 4 tcp 1040 ------- 1 1.0 4.1 1 8
+ 0.229072 4 3 ack 40 ------- 1 4.1 1.0 1 12
- 0.229072 4 3 ack 40 ------- 1 4.1 1.0 1 12
r 0.237392 3 4 tcp 1040 ------- 0 0.0 4.0 2 7
+ 0.237392 4 3 ack 40 ------- 0 4.0 0.0 2 13
- 0.237392 4 3 ack 40 ------- 0 4.0 0.0 2 13
r 0.245712 3 4 tcp 1040 ------- 1 1.0 4.1 2 9
+ 0.245712 4 3 ack 40 ------- 1 4.1 1.0 2 14
- 0.245712 4 3 ack 40 ------- 1 4.1 1.0 2 14
r 0.253712 3 4 tcp 1000 ------- 2 2.0 4.2 1 10
+ 0.253712 4 3 ack 40 ------- 2 4.2 2.0 1 15
- 0.253712 4 3 ack 40 ------- 2 4.2 2.0 1 15
r 0.271072 4 3 ack 40 ------- 0 4.0 0.0 1 11
+ 0.271072 3 0 ack 40 ------- 0 4.0 0.0 1 11
- 0.271072 3 0 ack 40 ------- 0 4.0 0.0 1 11
r 0.279392 4 3 ack 40 ------- 1 4.1 1.0 1 12
+ 0.279392 3 1 ack 40 ------- 1 4.1 1.0 1 12
- 0.279392 3 1 ack 40 ------- 1 4.1 1.0 1 12
r 0.287712 4 3 ack 40 ------- 0 4.0 0.0 2 13
+ 0.287712 3 0 ack 40 ------- 0 4.0 0.0 2 13
- 0.287712 3 0 ack 40 ------- 0 4.0 0.0 2 13
r 0.291136 3 0 ack 40 ------- 0 4.0 0.0 1 11
+ 0.291136 0 3 tcp 1040 ------- 0 0.0 4.0 3 16
- 0.291136 0 3 tcp 1040 ------- 0 0.0 4.0 3 16
+ 0.291136 0 3 tcp 1040 ------- 0 0.0 4.0 4 17
- 0.2928 0 3 tcp 1040 ------- 0 0.0 4.0 4 17
r 0.296032 4 3 ack 40 ------- 1 4.1 1.0 2 14
+ 0.296032 3 1 ack 40 ------- 1 4.1 1.0 2 14
- 0.296032 3 1 ack 40 ------- 1 4.1 1.0 2 14
r 0.299456 3 1 ack 40 ------- 1 4.1 1.0 1 12
+ 0.299456 1 3 tcp 1040 ------- 1 1.0 4.1 3 18
- 0.299456 1 3 tcp 1040 ------- 1 1.0 4.1 3 18
+ 0.299456 1 3 tcp 1040 ------- 1 1.0 4.1 4 19
- 0.30112 1 3 tcp 1040 ------- 1 1.0 4.1 4 19
r 0.304032 4 3 ack 40 ------- 2 4.2 2.0 1 15
+ 0.304032 3 2 ack 40 ------- 2 4.2 2.0 1 15
- 0.304032 3 2 ack 40 ------- 2 4.2 2.0 1 15
r 0.307776 3 0 ack 40 ------- 0 4.0 0.0 2 13
+ 0.307776 0 3 tcp 1040 ------- 0 0.0 4.0 5 20
- 0.307776 0 3 tcp 1040 ------- 0 0.0 4.0 5 20
+ 0.307776 0 3 tcp 1040 ------- 0 0.0 4.0 6 21
- 0.30944 0 3 tcp 1040 ------- 0 0.0 4.0 6 21
r 0.3128 0 3 tcp 1040 ------- 0 0.0 4.0 3 16
+ 0.3128 3 4 tcp 1040 ------- 0 0.0 4.0 3 16
- 0.3128 3 4 tcp 1040 ------- 0 0.0 4.0 3 16
r 0.314464 0 3 tcp 1040 ------- 0 0.0 4.0 4 17
+ 0.314464 3 4 tcp 1040 ------- 0 0.0 4.0 4 17
r 0.316096 3 1 ack 40 ------- 1 4.1 1.0 2 14
+ 0.316096 1 3 tcp 1040 ------- 1 1.0 4.1 5 22
- 0.316096 1 3 tcp 1040 ------- 1 1.0 4.1 5 22
+ 0.316096 1 3 tcp 1040 ------- 1 1.0 4.1 6 23
- 0.31776 1 3 tcp 1040 ------- 1 1.0 4.1 6 23
r 0.32112 1 3 tcp 1040 ------- 1 1.0 4.1 3 18
+ 0.32112 3 4 tcp 1040 ------- 1 1.0 4.1 3 18
- 0.32112 3 4 tcp 1040 ------- 0 0.0 4.0 4 17
r 0.322784 1 3 tcp 1040 ------- 1 1.0 4.1 4 19
+ 0.322784 3 4 tcp 1040 ------- 1 1.0 4.1 4 19
r 0.324096 3 2 ack 40 ------- 2 4.2 2.0 1 15
+ 0.324096 2 3 tcp 1000 ------- 2 2.0 4.2 2 24
- 0.324096 2 3 tcp 1000 ------- 2 2.0 4.2 2 24
+ 0.324096 2 3 tcp 1000 ------- 2 2.0 4.2 3 25
+ 0.324096 2 3 tcp 1000 ------- 2 2.0 4.2 4 26
- 0.325696 2 3 tcp 1000 ------- 2 2.0 4.2 3 25
- 0.327296 2 3 tcp 1000 ------- 2 2.0 4.2 4 26
r 0.32944 0 3 tcp 1040 ------- 0 0.0 4.0 5 20
+ 0.32944 3 4 tcp 1040 ------- 0 0.0 4.0 5 20
- 0.32944 3 4 tcp 1040 ------- 1 1.0 4.1 3 18
r 0.331104 0 3 tcp 1040 ------- 0 0.0 4.0 6 21
+ 0.331104 3 4 tcp 1040 ------- 0 0.0 4.0 6 21
r 0.33776 1 3 tcp 1040 ------- 1 1.0 4.1 5 22
+ 0.33776 3 4 tcp 1040 ------- 1 1.0 4.1 5 22
- 0.33776 3 4 tcp 1040 ------- 1 1.0 4.1 4 19
r 0.339424 1 3 tcp 1040 ------- 1 1.0 4.1 6 23
+ 0.339424 3 4 tcp 1040 ------- 1 1.0 4.1 6 23
r 0.345696 2 3 tcp 1000 ------- 2 2.0 4.2 2 24
+ 0.345696 3 4 tcp 1000 ------- 2 2.0 4.2 2 24
- 0.34608 3 4 tcp 1040 ------- 0 0.0 4.0 5 20
r 0.347296 2 3 tcp 1000 ------- 2 2.0 4.2 3 25
+ 0.347296 3 4 tcp 1000 ------- 2 2.0 4.2 3 25
r 0.348896 2 3 tcp 1000 ------- 2 2.0 4.2 4 26
+ 0.348896 3 4 tcp 1000 ------- 2 2.0 4.2 4 26
- 0.3544 3 4 tcp 1040 ------- 0 0.0 4.0 6 21
- 0.36272 3 4 tcp 1040 ------- 1 1.0 4.1 5 22
- 0.37104 3 4 tcp 1040 ------- 1 1.0 4.1 6 23
r 0.37112 3 4 tcp 1040 ------- 0 0.0 4.0 3 16
+ 0.37112 4 3 ack 40 ------- 0 4.0 0.0 3 27
- 0.37112 4 3 ack 40 ------- 0 4.0 0.0 3 27
- 0.37936 3 4 tcp 1000 ------- 2 2.0 4.2 2 24
r 0.37944 3 4 tcp 1040 ------- 0 0.0 4.0 4 17
+ 0.37944 4 3 ack 40 ------- 0 4.0 0.0 4 28
- 0.37944 4 3 ack 40 ------- 0 4.0 0.0 4 28
- 0.38736 3 4 tcp 1000 ------- 2 2.0 4.2 3 25
r 0.38776 3 4 tcp 1040 ------- 1 1.0 4.1 3 18
+ 0.38776 4 3 ack 40 ------- 1 4.1 1.0 3 29
- 0.38776 4 3 ack 40 ------- 1 4.1 1.0 3 29
- 0.39536 3 4 tcp 1000 ------- 2 2.0 4.2 4 26
r 0.39608 3 4 tcp 1040 ------- 1 1.0 4.1 4 19
+ 0.39608 4 3 ack 40 ------- 1 4.1 1.0 4 30
- 0.39608 4 3 ack 40 ------- 1 4.1 1.0 4 30
r 0.4044 3 4 tcp 1040 ------- 0 0.0 4.0 5 20
+ 0.4044 4 3 ack 40 ------- 0 4.0 0.0 5 31
- 0.4044 4 3 ack 40 ------- 0 4.0 0.0 5 31
r 0.41272 3 4 tcp 1040 ------- 0 0.0 4.0 6 21
+ 0.41272 4 3 ack 40 ------- 0 4.0 0.0 6 32
- 0.41272 4 3 ack 40 ------- 0 4.0 0.0 6 32
r 0.42104 3 4 tcp 1040 ------- 1 1.0 4.1 5 22
+ 0.42104 4 3 ack 40 ------- 1 4.1 1.0 5 33
- 0.42104 4 3 ack 40 ------- 1 4.1 1.0 5 33
r 0.42144 4 3 ack 40 ------- 0 4.0 0.0 3 27
+ 0.42144 3 0 ack 40 ------- 0 4.0 0.0 3 27
- 0.42144 3 0 ack 40 ------- 0 4.0 0.0 3 27
r 0.42936 3 4 tcp 1040 ------- 1 1.0 4.1 6 23
+ 0.42936 4 3 ack 40 ------- 1 4.1 1.0 6 34
- 0.42936 4 3 ack 40 ------- 1 4.1 1.0 6 34
r 0.42976 4 3 ack 40 ------- 0 4.0 0.0 4 28
+ 0.42976 3 0 ack 40 ------- 0 4.0 0.0 4 28
- 0.42976 3 0 ack 40 ------- 0 4.0 0.0 4 28
r 0.43736 3 4 tcp 1000 ------- 2 2.0 4.2 2 24
+ 0.43736 4 3 ack 40 ------- 2 4.2 2.0 2 35
- 0.43736 4 3 ack 40 ------- 2 4.2 2.0 2 35
r 0.43808 4 3 ack 40 ------- 1 4.1 1.0 3 29
+ 0.43808 3 1 ack 40 ------- 1 4.1 1.0 3 29
- 0.43808 3 1 ack 40 ------- 1 4.1 1.0 3 29
r 0.441504 3 0 ack 40 ------- 0 4.0 0.0 3 27
+ 0.441504 0 3 tcp 1040 ------- 0 0.0 4.0 7 36
- 0.441504 0 3 tcp 1040 ------- 0 0.0 4.0 7 36
+ 0.441504 0 3 tcp 1040 ------- 0 0.0 4.0 8 37
- 0.443168 0 3 tcp 1040 ------- 0 0.0 4.0 8 37
r 0.44536 3 4 tcp 1000 ------- 2 2.0 4.2 3 25
+ 0.44536 4 3 ack 40 ------- 2 4.2 2.0 3 38
- 0.44536 4 3 ack 40 ------- 2 4.2 2.0 3 38
r 0.4464 4 3 ack 40 ------- 1 4.1 1.0 4 30
+ 0.4464 3 1 ack 40 ------- 1 4.1 1.0 4 30
- 0.4464 3 1 ack 40 ------- 1 4.1 1.0 4 30
r 0.449824 3 0 ack 40 ------- 0 4.0 0.0 4 28
+ 0.449824 0 3 tcp 1040 ------- 0 0.0 4.0 9 39
- 0.449824 0 3 tcp 1040 ------- 0 0.0 4.0 9 39
+ 0.449824 0 3 tcp 1040 ------- 0 0.0 4.0 10 40
- 0.451488 0 3 tcp 1040 ------- 0 0.0 4.0 10 40
r 0.45336 3 4 tcp 1000 ------- 2 2.0 4.2 4 26
+ 0.45336 4 3 ack 40 ------- 2 4.2 2.0 4 41
- 0.45336 4 3 ack 40 ------- 2 4.2 2.0 4 41
r 0.45472 4 3 ack 40 ------- 0 4.0 0.0 5 31
+ 0.45472 3 0 ack 40 ------- 0 4.0 0.0 5 31
- 0.45472 3 0 ack 40 ------- 0 4.0 0.0 5 31
r 0.458144 3 1 ack 40 ------- 1 4.1 1.0 3 29
+ 0.458144 1 3 tcp 1040 ------- 1 1.0 4.1 7 42
- 0.458144 1 3 tcp 1040 ------- 1 1.0 4.1 7 42
+ 0.458144 1 3 tcp 1040 ------- 1 1.0 4.1 8 43
- 0.459808 1 3 tcp 1040 ------- 1 1.0 4.1 8 43
r 0.46304 4 3 ack 40 ------- 0 4.0 0.0 6 32
+ 0.46304 3 0 ack 40 ------- 0 4.0 0.0 6 32
- 0.46304 3 0 ack 40 ------- 0 4.0 0.0 6 32
r 0.463168 0 3 tcp 1040 ------- 0 0.0 4.0 7 36
+ 0.463168 3 4 tcp 1040 ------- 0 0.0 4.0 7 36
- 0.463168 3 4 tcp 1040 ------- 0 0.0 4.0 7 36
r 0.464832 0 3 tcp 1040 ------- 0 0.0 4.0 8 37
+ 0.464832 3 4 tcp 1040 ------- 0 0.0 4.0 8 37
r 0.466464 3 1 ack 40 ------- 1 4.1 1.0 4 30
+ 0.466464 1 3 tcp 1040 ------- 1 1.0 4.1 9 44
- 0.466464 1 3 tcp 1040 ------- 1 1.0 4.1 9 44
+ 0.466464 1 3 tcp 1040 ------- 1 1.0 4.1 10 45
- 0.468128 1 3 tcp 1040 ------- 1 1.0 4.1 10 45
r 0.47136 4 3 ack 40 ------- 1 4.1 1.0 5 33
+ 0.47136 3 1 ack 40 ------- 1 4.1 1.0 5 33
- 0.47136 3 1 ack 40 ------- 1 4.1 1.0 5 33
r 0.471488 0 3 tcp 1040 ------- 0 0.0 4.0 9 39
+ 0.471488 3 4 tcp 1040 ------- 0 0.0 4.0 9 39
- 0.471488 3 4 tcp 1040 ------- 0 0.0 4.0 8 37
r 0.473152 0 3 tcp 1040 ------- 0 0.0 4.0 10 40
+ 0.473152 3 4 tcp 1040 ------- 0 0.0 4.0 10 40
r 0.474784 3 0 ack 40 ------- 0 4.0 0.0 5 31
+ 0.474784 0 3 tcp 1040 ------- 0 0.0 4.0 11 46
- 0.474784 0 3 tcp 1040 ------- 0 0.0 4.0 11 46
+ 0.474784 0 3 tcp 1040 ------- 0 0.0 4.0 12 47
- 0.476448 0 3 tcp 1040 ------- 0 0.0 4.0 12 47
r 0.47968 4 3 ack 40 ------- 1 4.1 1.0 6 34
+ 0.47968 3 1 ack 40 ------- 1 4.1 1.0 6 34
- 0.47968 3 1 ack 40 ------- 1 4.1 1.0 6 34
r 0.479808 1 3 tcp 1040 ------- 1 1.0 4.1 7 42
+ 0.479808 3 4 tcp 1040 ------- 1 1.0 4.1 7 42
- 0.479808 3 4 tcp 1040 ------- 0 0.0 4.0 9 39
r 0.481472 1 3 tcp 1040 ------- 1 1.0 4.1 8 43
+ 0.481472 3 4 tcp 1040 ------- 1 1.0 4.1 8 43
r 0.483104 3 0 ack 40 ------- 0 4.0 0.0 6 32
+ 0.483104 0 3 tcp 1040 ------- 0 0.0 4.0 13 48
- 0.483104 0 3 tcp 1040 ------- 0 0.0 4.0 13 48
+ 0.483104 0 3 tcp 1040 ------- 0 0.0 4.0 14 49
- 0.484768 0 3 tcp 1040 ------- 0 0.0 4.0 14 49
r 0.48768 4 3 ack 40 ------- 2 4.2 2.0 2 35
+ 0.48768 3 2 ack 40 ------- 2 4.2 2.0 2 35
- 0.48768 3 2 ack 40 ------- 2 4.2 2.0 2 35
r 0.488128 1 3 tcp 1040 ------- 1 1.0 4.1 9 44
+ 0.488128 3 4 tcp 1040 ------- 1 1.0 4.1 9 44
- 0.488128 3 4 tcp 1040 ------- 0 0.0 4.0 10 40
r 0.489792 1 3 tcp 1040 ------- 1 1.0 4.1 10 45
+ 0.489792 3 4 tcp 1040 ------- 1 1.0 4.1 10 45
r 0.491424 3 1 ack 40 ------- 1 4.1 1.0 5 33
+ 0.491424 1 3 tcp 1040 ------- 1 1.0 4.1 11 50
- 0.491424 1 3 tcp 1040 ------- 1 1.0 4.1 11 50
+ 0.491424 1 3 tcp 1040 ------- 1 1.0 4.1 12 51
- 0.493088 1 3 tcp 1040 ------- 1 1.0 4.1 12 51
r 0.49568 4 3 ack 40 ------- 2 4.2 2.0 3 38
+ 0.49568 3 2 ack 40 ------- 2 4.2 2.0 3 38
- 0.49568 3 2 ack 40 ------- 2 4.2 2.0 3 38
r 0.496448 0 3 tcp 1040 ------- 0 0.0 4.0 11 46
+ 0.496448 3 4 tcp 1040 ------- 0 0.0 4.0 11 46
- 0.496448 3 4 tcp 1040 ------- 1 1.0 4.1 7 42
r 0.498112 0 3 tcp 1040 ------- 0 0.0 4.0 12 47
+ 0.498112 3 4 tcp 1040 ------- 0 0.0 4.0 12 47
r 0.499744 3 1 ack 40 ------- 1 4.1 1.0 6 34
+ 0.499744 1 3 tcp 1040 ------- 1 1.0 4.1 13 52
- 0.499744 1 3 tcp 1040 ------- 1 1.0 4.1 13 52
+ 0.499744 1 3 tcp 1040 ------- 1 1.0 4.1 14 53
- 0.501408 1 3 tcp 1040 ------- 1 1.0 4.1 14 53
r 0.50368 4 3 ack 40 ------- 2 4.2 2.0 4 41
+ 0.50368 3 2 ack 40 ------- 2 4.2 2.0 4 41
- 0.50368 3 2 ack 40 ------- 2 4.2 2.0 4 41
r 0.504768 0 3 tcp 1040 ------- 0 0.0 4.0 13 48
+ 0.504768 3 4 tcp 1040 ------- 0 0.0 4.0 13 48
- 0.504768 3 4 tcp 1040 ------- 1 1.0 4.1 8 43
r 0.506432 0 3 tcp 1040 ------- 0 0.0 4.0 14 49
+ 0.506432 3 4 tcp 1040 ------- 0 0.0 4.0 14 49
r 0.507744 3 2 ack 40 ------- 2 4.2 2.0 2 35
+ 0.507744 2 3 tcp 1000 ------- 2 2.0 4.2 5 54
- 0.507744 2 3 tcp 1000 ------- 2 2.0 4.2 5 54
r 0.513088 1 3 tcp 1040 ------- 1 1.0 4.1 11 50
+ 0.513088 3 4 tcp 1040 ------- 1 1.0 4.1 11 50
- 0.513088 3 4 tcp 1040 ------- 1 1.0 4.1 9 44
r 0.514752 1 3 tcp 1040 ------- 1 1.0 4.1 12 51
+ 0.514752 3 4 tcp 1040 ------- 1 1.0 4.1 12 51
r 0.515744 3 2 ack 40 ------- 2 4.2 2.0 3 38
+ 0.515744 2 3 tcp 1000 ------- 2 2.0 4.2 6 55
- 0.515744 2 3 tcp 1000 ------- 2 2.0 4.2 6 55
r 0.521408 1 3 tcp 1040 ------- 1 1.0 4.1 13 52
+ 0.521408 3 4 tcp 1040 ------- 1 1.0 4.1 13 52
- 0.521408 3 4 tcp 1040 ------- 1 1.0 4.1 10 45
r 0.521488 3 4 tcp 1040 ------- 0 0.0 4.0 7 36
+ 0.521488 4 3 ack 40 ------- 0 4.0 0.0 7 56
- 0.521488 4 3 ack 40 ------- 0 4.0 0.0 7 56
r 0.523072 1 3 tcp 1040 ------- 1 1.0 4.1 14 53
+ 0.523072 3 4 tcp 1040 ------- 1 1.0 4.1 14 53
r 0.523744 3 2 ack 40 ------- 2 4.2 2.0 4 41
+ 0.523744 2 3 tcp 1000 ------- 2 2.0 4.2 7 57
- 0.523744 2 3 tcp 1000 ------- 2 2.0 4.2 7 57
r 0.529344 2 3 tcp 1000 ------- 2 2.0 4.2 5 54
+ 0.529344 3 4 tcp 1000 ------- 2 2.0 4.2 5 54
- 0.529728 3 4 tcp 1040 ------- 0 0.0 4.0 11 46
r 0.529808 3 4 tcp 1040 ------- 0 0.0 4.0 8 37
+ 0.529808 4 3 ack 40 ------- 0 4.0 0.0 8 58
- 0.529808 4 3 ack 40 ------- 0 4.0 0.0 8 58
r 0.537344 2 3 tcp 1000 ------- 2 2.0 4.2 6 55
+ 0.537344 3 4 tcp 1000 ------- 2 2.0 4.2 6 55
- 0.538048 3 4 tcp 1040 ------- 0 0.0 4.0 12 47
r 0.538128 3 4 tcp 1040 ------- 0 0.0 4.0 9 39
+ 0.538128 4 3 ack 40 ------- 0 4.0 0.0 9 59
- 0.538128 4 3 ack 40 ------- 0 4.0 0.0 9 59
r 0.545344 2 3 tcp 1000 ------- 2 2.0 4.2 7 57
+ 0.545344 3 4 tcp 1000 ------- 2 2.0 4.2 7 57
- 0.546368 3 4 tcp 1040 ------- 0 0.0 4.0 13 48
r 0.546448 3 4 tcp 1040 ------- 0 0.0 4.0 10 40
+ 0.546448 4 3 ack 40 ------- 0 4.0 0.0 10 60
- 0.546448 4 3 ack 40 ------- 0 4.0 0.0 10 60
- 0.554688 3 4 tcp 1040 ------- 0 0.0 4.0 14 49
r 0.554768 3 4 tcp 1040 ------- 1 1.0 4.1 7 42
+ 0.554768 4 3 ack 40 ------- 1 4.1 1.0 7 61
- 0.554768 4 3 ack 40 ------- 1 4.1 1.0 7 61
- 0.563008 3 4 tcp 1040 ------- 1 1.0 4.1 11 50
r 0.563088 3 4 tcp 1040 ------- 1 1.0 4.1 8 43
+ 0.563088 4 3 ack 40 ------- 1 4.1 1.0 8 62
- 0.563088 4 3 ack 40 ------- 1 4.1 1.0 8 62
- 0.571328 3 4 tcp 1040 ------- 1 1.0 4.1 12 51
r 0.571408 3 4 tcp 1040 ------- 1 1.0 4.1 9 44
+ 0.571408 4 3 ack 40 ------- 1 4.1 1.0 9 63
- 0.571408 4 3 ack 40 ------- 1 4.1 1.0 9 63
r 0.571808 4 3 ack 40 ------- 0 4.0 0.0 7 56
+ 0.571808 3 0 ack 40 ------- 0 4.0 0.0 7 56
- 0.571808 3 0 ack 40 ------- 0 4.0 0.0 7 56
- 0.579648 3 4 tcp 1040 ------- 1 1.0 4.1 13 52
r 0.579728 3 4 tcp 1040 ------- 1 1.0 4.1 10 45
+ 0.579728 4 3 ack 40 ------- 1 4.1 1.0 10 64
- 0.579728 4 3 ack 40 ------- 1 4.1 1.0 10 64
r 0.580128 4 3 ack 40 ------- 0 4.0 0.0 8 58
+ 0.580128 3 0 ack 40 ------- 0 4.0 0.0 8 58
- 0.580128 3 0 ack 40 ------- 0 4.0 0.0 8 58
- 0.587968 3 4 tcp 1040 ------- 1 1.0 4.1 14 53
r 0.588048 3 4 tcp 1040 ------- 0 0.0 4.0 11 46
+ 0.588048 4 3 ack 40 ------- 0 4.0 0.0 11 65
- 0.588048 4 3 ack 40 ------- 0 4.0 0.0 11 65
r 0.588448 4 3 ack 40 ------- 0 4.0 0.0 9 59
+ 0.588448 3 0 ack 40 ------- 0 4.0 0.0 9 59
- 0.588448 3 0 ack 40 ------- 0 4.0 0.0 9 59
r 0.591872 3 0 ack 40 ------- 0 4.0 0.0 7 56
+ 0.591872 0 3 tcp 1040 ------- 0 0.0 4.0 15 66
- 0.591872 0 3 tcp 1040 ------- 0 0.0 4.0 15 66
+ 0.591872 0 3 tcp 1040 ------- 0 0.0 4.0 16 67
- 0.593536 0 3 tcp 1040 ------- 0 0.0 4.0 16 67
- 0.596288 3 4 tcp 1000 ------- 2 2.0 4.2 5 54
r 0.596368 3 4 tcp 1040 ------- 0 0.0 4.0 12 47
+ 0.596368 4 3 ack 40 ------- 0 4.0 0.0 12 68
- 0.596368 4 3 ack 40 ------- 0 4.0 0.0 12 68
r 0.596768 4 3 ack 40 ------- 0 4.0 0.0 10 60
+ 0.596768 3 0 ack 40 ------- 0 4.0 0.0 10 60
- 0.596768 3 0 ack 40 ------- 0 4.0 0.0 10 60
r 0.600192 3 0 ack 40 ------- 0 4.0 0.0 8 58
+ 0.600192 0 3 tcp 1040 ------- 0 0.0 4.0 17 69
- 0.600192 0 3 tcp 1040 ------- 0 0.0 4.0 17 69
+ 0.600192 0 3 tcp 1040 ------- 0 0.0 4.0 18 70
- 0.601856 0 3 tcp 1040 ------- 0 0.0 4.0 18 70
- 0.604288 3 4 tcp 1000 ------- 2 2.0 4.2 6 55
r 0.604688 3 4 tcp 1040 ------- 0 0.0 4.0 13 48
+ 0.604688 4 3 ack 40 ------- 0 4.0 0.0 13 71
- 0.604688 4 3 ack 40 ------- 0 4.0 0.0 13 71
r 0.605088 4 3 ack 40 ------- 1 4.1 1.0 7 61
+ 0.605088 3 1 ack 40 ------- 1 4.1 1.0 7 61
- 0.605088 3 1 ack 40 ------- 1 4.1 1.0 7 61
r 0.608512 3 0 ack 40 ------- 0 4.0 0.0 9 59
+ 0.608512 0 3 tcp 1040 ------- 0 0.0 4.0 19 72
- 0.608512 0 3 tcp 1040 ------- 0 0.0 4.0 19 72
+ 0.608512 0 3 tcp 1040 ------- 0 0.0 4.0 20 73
- 0.610176 0 3 tcp 1040 ------- 0 0.0 4.0 20 73
- 0.612288 3 4 tcp 1000 ------- 2 2.0 4.2 7 57
r 0.613008 3 4 tcp 1040 ------- 0 0.0 4.0 14 49
+ 0.613008 4 3 ack 40 ------- 0 4.0 0.0 14 74
- 0.613008 4 3 ack 40 ------- 0 4.0 0.0 14 74
r 0.613408 4 3 ack 40 ------- 1 4.1 1.0 8 62
+ 0.613408 3 1 ack 40 ------- 1 4.1 1.0 8 62
- 0.613408 3 1 ack 40 ------- 1 4.1 1.0 8 62
r 0.613536 0 3 tcp 1040 ------- 0 0.0 4.0 15 66
+ 0.613536 3 4 tcp 1040 ------- 0 0.0 4.0 15 66
r 0.6152 0 3 tcp 1040 ------- 0 0.0 4.0 16 67
+ 0.6152 3 4 tcp 1040 ------- 0 0.0 4.0 16 67
r 0.616832 3 0 ack 40 ------- 0 4.0 0.0 10 60
+ 0.616832 0 3 tcp 1040 ------- 0 0.0 4.0 21 75
- 0.616832 0 3 tcp 1040 ------- 0 0.0 4.0 21 75
+ 0.616832 0 3 tcp 1040 ------- 0 0.0 4.0 22 76
- 0.618496 0 3 tcp 1040 ------- 0 0.0 4.0 22 76
- 0.620288 3 4 tcp 1040 ------- 0 0.0 4.0 15 66
r 0.621328 3 4 tcp 1040 ------- 1 1.0 4.1 11 50
+ 0.621328 4 3 ack 40 ------- 1 4.1 1.0 11 77
- 0.621328 4 3 ack 40 ------- 1 4.1 1.0 11 77
r 0.621728 4 3 ack 40 ------- 1 4.1 1.0 9 63
+ 0.621728 3 1 ack 40 ------- 1 4.1 1.0 9 63
- 0.621728 3 1 ack 40 ------- 1 4.1 1.0 9 63
r 0.621856 0 3 tcp 1040 ------- 0 0.0 4.0 17 69
+ 0.621856 3 4 tcp 1040 ------- 0 0.0 4.0 17 69
r 0.62352 0 3 tcp 1040 ------- 0 0.0 4.0 18 70
+ 0.62352 3 4 tcp 1040 ------- 0 0.0 4.0 18 70
r 0.625152 3 1 ack 40 ------- 1 4.1 1.0 7 61
+ 0.625152 1 3 tcp 1040 ------- 1 1.0 4.1 15 78
- 0.625152 1 3 tcp 1040 ------- 1 1.0 4.1 15 78
+ 0.625152 1 3 tcp 1040 ------- 1 1.0 4.1 16 79
- 0.626816 1 3 tcp 1040 ------- 1 1.0 4.1 16 79
- 0.628608 3 4 tcp 1040 ------- 0 0.0 4.0 16 67
r 0.629648 3 4 tcp 1040 ------- 1 1.0 4.1 12 51
+ 0.629648 4 3 ack 40 ------- 1 4.1 1.0 12 80
- 0.629648 4 3 ack 40 ------- 1 4.1 1.0 12 80
r 0.630048 4 3 ack 40 ------- 1 4.1 1.0 10 64
+ 0.630048 3 1 ack 40 ------- 1 4.1 1.0 10 64
- 0.630048 3 1 ack 40 ------- 1 4.1 1.0 10 64
r 0.630176 0 3 tcp 1040 ------- 0 0.0 4.0 19 72
+ 0.630176 3 4 tcp 1040 ------- 0 0.0 4.0 19 72
r 0.63184 0 3 tcp 1040 ------- 0 0.0 4.0 20 73
+ 0.63184 3 4 tcp 1040 ------- 0 0.0 4.0 20 73
r 0.633472 3 1 ack 40 ------- 1 4.1 1.0 8 62
+ 0.633472 1 3 tcp 1040 ------- 1 1.0 4.1 17 81
- 0.633472 1 3 tcp 1040 ------- 1 1.0 4.1 17 81
+ 0.633472 1 3 tcp 1040 ------- 1 1.0 4.1 18 82
- 0.635136 1 3 tcp 1040 ------- 1 1.0 4.1 18 82
- 0.636928 3 4 tcp 1040 ------- 0 0.0 4.0 17 69
r 0.637968 3 4 tcp 1040 ------- 1 1.0 4.1 13 52
+ 0.637968 4 3 ack 40 ------- 1 4.1 1.0 13 83
- 0.637968 4 3 ack 40 ------- 1 4.1 1.0 13 83
r 0.638368 4 3 ack 40 ------- 0 4.0 0.0 11 65
+ 0.638368 3 0 ack 40 ------- 0 4.0 0.0 11 65
- 0.638368 3 0 ack 40 ------- 0 4.0 0.0 11 65
r 0.638496 0 3 tcp 1040 ------- 0 0.0 4.0 21 75
+ 0.638496 3 4 tcp 1040 ------- 0 0.0 4.0 21 75
r 0.64016 0 3 tcp 1040 ------- 0 0.0 4.0 22 76
+ 0.64016 3 4 tcp 1040 ------- 0 0.0 4.0 22 76
r 0.641792 3 1 ack 40 ------- 1 4.1 1.0 9 63
+ 0.641792 1 3 tcp 1040 ------- 1 1.0 4.1 19 84
- 0.641792 1 3 tcp 1040 ------- 1 1.0 4.1 19 84
+ 0.641792 1 3 tcp 1040 ------- 1 1.0 4.1 20 85
- 0.643456 1 3 tcp 1040 ------- 1 1.0 4.1 20 85
- 0.645248 3 4 tcp 1040 ------- 0 0.0 4.0 18 70
r 0.646288 3 4 tcp 1040 ------- 1 1.0 4.1 14 53
+ 0.646288 4 3 ack 40 ------- 1 4.1 1.0 14 86
- 0.646288 4 3 ack 40 ------- 1 4.1 1.0 14 86
r 0.646688 4 3 ack 40 ------- 0 4.0 0.0 12 68
+ 0.646688 3 0 ack 40 ------- 0 4.0 0.0 12 68
- 0.646688 3 0 ack 40 ------- 0 4.0 0.0 12 68
r 0.646816 1 3 tcp 1040 ------- 1 1.0 4.1 15 78
+ 0.646816 3 4 tcp 1040 ------- 1 1.0 4.1 15 78
r 0.64848 1 3 tcp 1040 ------- 1 1.0 4.1 16 79
+ 0.64848 3 4 tcp 1040 ------- 1 1.0 4.1 16 79
r 0.650112 3 1 ack 40 ------- 1 4.1 1.0 10 64
+ 0.650112 1 3 tcp 1040 ------- 1 1.0 4.1 21 87
- 0.650112 1 3 tcp 1040 ------- 1 1.0 4.1 21 87
+ 0.650112 1 3 tcp 1040 ------- 1 1.0 4.1 22 88
- 0.651776 1 3 tcp 1040 ------- 1 1.0 4.1 22 88
- 0.653568 3 4 tcp 1040 ------- 0 0.0 4.0 19 72
r 0.654288 3 4 tcp 1000 ------- 2 2.0 4.2 5 54
+ 0.654288 4 3 ack 40 ------- 2 4.2 2.0 5 89
- 0.654288 4 3 ack 40 ------- 2 4.2 2.0 5 89
r 0.655008 4 3 ack 40 ------- 0 4.0 0.0 13 71
+ 0.655008 3 0 ack 40 ------- 0 4.0 0.0 13 71
- 0.655008 3 0 ack 40 ------- 0 4.0 0.0 13 71
r 0.655136 1 3 tcp 1040 ------- 1 1.0 4.1 17 81
+ 0.655136 3 4 tcp 1040 ------- 1 1.0 4.1 17 81
r 0.6568 1 3 tcp 1040 ------- 1 1.0 4.1 18 82
+ 0.6568 3 4 tcp 1040 ------- 1 1.0 4.1 18 82
r 0.658432 3 0 ack 40 ------- 0 4.0 0.0 11 65
+ 0.658432 0 3 tcp 1040 ------- 0 0.0 4.0 23 90
- 0.658432 0 3 tcp 1040 ------- 0 0.0 4.0 23 90
+ 0.658432 0 3 tcp 1040 ------- 0 0.0 4.0 24 91
- 0.660096 0 3 tcp 1040 ------- 0 0.0 4.0 24 91
- 0.661888 3 4 tcp 1040 ------- 0 0.0 4.0 20 73
r 0.662288 3 4 tcp 1000 ------- 2 2.0 4.2 6 55
+ 0.662288 4 3 ack 40 ------- 2 4.2 2.0 6 92
- 0.662288 4 3 ack 40 ------- 2 4.2 2.0 6 92
r 0.663328 4 3 ack 40 ------- 0 4.0 0.0 14 74
+ 0.663328 3 0 ack 40 ------- 0 4.0 0.0 14 74
- 0.663328 3 0 ack 40 ------- 0 4.0 0.0 14 74
r 0.663456 1 3 tcp 1040 ------- 1 1.0 4.1 19 84
+ 0.663456 3 4 tcp 1040 ------- 1 1.0 4.1 19 84
r 0.66512 1 3 tcp 1040 ------- 1 1.0 4.1 20 85
+ 0.66512 3 4 tcp 1040 ------- 1 1.0 4.1 20 85
r 0.666752 3 0 ack 40 ------- 0 4.0 0.0 12 68
+ 0.666752 0 3 tcp 1040 ------- 0 0.0 4.0 25 93
- 0.666752 0 3 tcp 1040 ------- 0 0.0 4.0 25 93
+ 0.666752 0 3 tcp 1040 ------- 0 0.0 4.0 26 94
- 0.668416 0 3 tcp 1040 ------- 0 0.0 4.0 26 94
- 0.670208 3 4 tcp 1040 ------- 0 0.0 4.0 21 75
r 0.670288 3 4 tcp 1000 ------- 2 2.0 4.2 7 57
+ 0.670288 4 3 ack 40 ------- 2 4.2 2.0 7 95
- 0.670288 4 3 ack 40 ------- 2 4.2 2.0 7 95
r 0.671648 4 3 ack 40 ------- 1 4.1 1.0 11 77
+ 0.671648 3 1 ack 40 ------- 1 4.1 1.0 11 77
- 0.671648 3 1 ack 40 ------- 1 4.1 1.0 11 77
r 0.671776 1 3 tcp 1040 ------- 1 1.0 4.1 21 87
+ 0.671776 3 4 tcp 1040 ------- 1 1.0 4.1 21 87
r 0.67344 1 3 tcp 1040 ------- 1 1.0 4.1 22 88
+ 0.67344 3 4 tcp 1040 ------- 1 1.0 4.1 22 88
r 0.675072 3 0 ack 40 ------- 0 4.0 0.0 13 71
+ 0.675072 0 3 tcp 1040 ------- 0 0.0 4.0 27 96
- 0.675072 0 3 tcp 1040 ------- 0 0.0 4.0 27 96
+ 0.675072 0 3 tcp 1040 ------- 0 0.0 4.0 28 97
- 0.676736 0 3 tcp 1040 ------- 0 0.0 4.0 28 97
- 0.678528 3 4 tcp 1040 ------- 0 0.0 4.0 22 76
r 0.678608 3 4 tcp 1040 ------- 0 0.0 4.0 15 66
+ 0.678608 4 3 ack 40 ------- 0 4.0 0.0 15 98
- 0.678608 4 3 ack 40 ------- 0 4.0 0.0 15 98
r 0.679968 4 3 ack 40 ------- 1 4.1 1.0 12 80
+ 0.679968 3 1 ack 40 ------- 1 4.1 1.0 12 80
- 0.679968 3 1 ack 40 ------- 1 4.1 1.0 12 80
r 0.680096 0 3 tcp 1040 ------- 0 0.0 4.0 23 90
+ 0.680096 3 4 tcp 1040 ------- 0 0.0 4.0 23 90
r 0.68176 0 3 tcp 1040 ------- 0 0.0 4.0 24 91
+ 0.68176 3 4 tcp 1040 ------- 0 0.0 4.0 24 91
r 0.683392 3 0 ack 40 ------- 0 4.0 0.0 14 74
+ 0.683392 0 3 tcp 1040 ------- 0 0.0 4.0 29 99
- 0.683392 0 3 tcp 1040 ------- 0 0.0 4.0 29 99
+ 0.683392 0 3 tcp 1040 ------- 0 0.0 4.0 30 100
- 0.685056 0 3 tcp 1040 ------- 0 0.0 4.0 30 100
- 0.686848 3 4 tcp 1040 ------- 1 1.0 4.1 15 78
r 0.686928 3 4 tcp 1040 ------- 0 0.0 4.0 16 67
+ 0.686928 4 3 ack 40 ------- 0 4.0 0.0 16 101
- 0.686928 4 3 ack 40 ------- 0 4.0 0.0 16 101
r 0.688288 4 3 ack 40 ------- 1 4.1 1.0 13 83
+ 0.688288 3 1 ack 40 ------- 1 4.1 1.0 13 83
- 0.688288 3 1 ack 40 ------- 1 4.1 1.0 13 83
r 0.688416 0 3 tcp 1040 ------- 0 0.0 4.0 25 93
+ 0.688416 3 4 tcp 1040 ------- 0 0.0 4.0 25 93
r 0.69008 0 3 tcp 1040 ------- 0 0.0 4.0 26 94
+ 0.69008 3 4 tcp 1040 ------- 0 0.0 4.0 26 94
r 0.691712 3 1 ack 40 ------- 1 4.1 1.0 11 77
+ 0.691712 1 3 tcp 1040 ------- 1 1.0 4.1 23 102
- 0.691712 1 3 tcp 1040 ------- 1 1.0 4.1 23 102
+ 0.691712 1 3 tcp 1040 ------- 1 1.0 4.1 24 103
- 0.693376 1 3 tcp 1040 ------- 1 1.0 4.1 24 103
- 0.695168 3 4 tcp 1040 ------- 1 1.0 4.1 16 79
r 0.695248 3 4 tcp 1040 ------- 0 0.0 4.0 17 69
+ 0.695248 4 3 ack 40 ------- 0 4.0 0.0 17 104
- 0.695248 4 3 ack 40 ------- 0 4.0 0.0 17 104
r 0.696608 4 3 ack 40 ------- 1 4.1 1.0 14 86
+ 0.696608 3 1 ack 40 ------- 1 4.1 1.0 14 86
- 0.696608 3 1 ack 40 ------- 1 4.1 1.0 14 86
r 0.696736 0 3 tcp 1040 ------- 0 0.0 4.0 27 96
+ 0.696736 3 4 tcp 1040 ------- 0 0.0 4.0 27 96
r 0.6984 0 3 tcp 1040 ------- 0 0.0 4.0 28 97
+ 0.6984 3 4 tcp 1040 ------- 0 0.0 4.0 28 97
r 0.700032 3 1 ack 40 ------- 1 4.1 1.0 12 80
+ 0.700032 1 3 tcp 1040 ------- 1 1.0 4.1 25 105
- 0.700032 1 3 tcp 1040 ------- 1 1.0 4.1 25 105
+ 0.700032 1 3 tcp 1040 ------- 1 1.0 4.1 26 106
- 0.701696 1 3 tcp 1040 ------- 1 1.0 4.1 26 106
- 0.703488 3 4 tcp 1040 ------- 1 1.0 4.1 17 81
r 0.703568 3 4 tcp 1040 ------- 0 0.0 4.0 18 70
+ 0.703568 4 3 ack 40 ------- 0 4.0 0.0 18 107
- 0.703568 4 3 ack 40 ------- 0 4.0 0.0 18 107
r 0.704608 4 3 ack 40 ------- 2 4.2 2.0 5 89
+ 0.704608 3 2 ack 40 ------- 2 4.2 2.0 5 89
- 0.704608 3 2 ack 40 ------- 2 4.2 2.0 5 89
r 0.705056 0 3 tcp 1040 ------- 0 0.0 4.0 29 99
+ 0.705056 3 4 tcp 1040 ------- 0 0.0 4.0 29 99
r 0.70672 0 3 tcp 1040 ------- 0 0.0 4.0 30 100
+ 0.70672 3 4 tcp 1040 ------- 0 0.0 4.0 30 100
r 0.708352 3 1 ack 40 ------- 1 4.1 1.0 13 83
+ 0.708352 1 3 tcp 1040 ------- 1 1.0 4.1 27 108
- 0.708352 1 3 tcp 1040 ------- 1 1.0 4.1 27 108
+ 0.708352 1 3 tcp 1040 ------- 1 1.0 4.1 28 109
- 0.710016 1 3 tcp 1040 ------- 1 1.0 4.1 28 109
- 0.711808 3 4 tcp 1040 ------- 1 1.0 4.1 18 82
r 0.711888 3 4 tcp 1040 ------- 0 0.0 4.0 19 72
+ 0.711888 4 3 ack 40 ------- 0 4.0 0.0 19 110
- 0.711888 4 3 ack 40 ------- 0 4.0 0.0 19 110
r 0.712608 4 3 ack 40 ------- 2 4.2 2.0 6 92
+ 0.712608 3 2 ack 40 ------- 2 4.2 2.0 6 92
- 0.712608 3 2 ack 40 ------- 2 4.2 2.0 6 92
r 0.713376 1 3 tcp 1040 ------- 1 1.0 4.1 23 102
+ 0.713376 3 4 tcp 1040 ------- 1 1.0 4.1 23 102
r 0.71504 1 3 tcp 1040 ------- 1 1.0 4.1 24 103
+ 0.71504 3 4 tcp 1040 ------- 1 1.0 4.1 24 103
r 0.716672 3 1 ack 40 ------- 1 4.1 1.0 14 86
+ 0.716672 1 3 tcp 1040 ------- 1 1.0 4.1 29 111
- 0.716672 1 3 tcp 1040 ------- 1 1.0 4.1 29 111
+ 0.716672 1 3 tcp 1040 ------- 1 1.0 4.1 30 112
- 0.718336 1 3 tcp 1040 ------- 1 1.0 4.1 30 112
- 0.720128 3 4 tcp 1040 ------- 1 1.0 4.1 19 84
r 0.720208 3 4 tcp 1040 ------- 0 0.0 4.0 20 73
+ 0.720208 4 3 ack 40 ------- 0 4.0 0.0 20 113
- 0.720208 4 3 ack 40 ------- 0 4.0 0.0 20 113
r 0.720608 4 3 ack 40 ------- 2 4.2 2.0 7 95
+ 0.720608 3 2 ack 40 ------- 2 4.2 2.0 7 95
- 0.720608 3 2 ack 40 ------- 2 4.2 2.0 7 95
r 0.721696 1 3 tcp 1040 ------- 1 1.0 4.1 25 105
+ 0.721696 3 4 tcp 1040 ------- 1 1.0 4.1 25 105
r 0.72336 1 3 tcp 1040 ------- 1 1.0 4.1 26 106
+ 0.72336 3 4 tcp 1040 ------- 1 1.0 4.1 26 106
r 0.724672 3 2 ack 40 ------- 2 4.2 2.0 5 89
+ 0.724672 2 3 tcp 1000 ------- 2 2.0 4.2 8 114
- 0.724672 2 3 tcp 1000 ------- 2 2.0 4.2 8 114
+ 0.724672 2 3 tcp 1000 ------- 2 2.0 4.2 9 115
- 0.726272 2 3 tcp 1000 ------- 2 2.0 4.2 9 115
- 0.728448 3 4 tcp 1040 ------- 1 1.0 4.1 20 85
r 0.728528 3 4 tcp 1040 ------- 0 0.0 4.0 21 75
+ 0.728528 4 3 ack 40 ------- 0 4.0 0.0 21 116
- 0.728528 4 3 ack 40 ------- 0 4.0 0.0 21 116
r 0.728928 4 3 ack 40 ------- 0 4.0 0.0 15 98
+ 0.728928 3 0 ack 40 ------- 0 4.0 0.0 15 98
- 0.728928 3 0 ack 40 ------- 0 4.0 0.0 15 98
r 0.730016 1 3 tcp 1040 ------- 1 1.0 4.1 27 108
+ 0.730016 3 4 tcp 1040 ------- 1 1.0 4.1 27 108
r 0.73168 1 3 tcp 1040 ------- 1 1.0 4.1 28 109
+ 0.73168 3 4 tcp 1040 ------- 1 1.0 4.1 28 109
r 0.732672 3 2 ack 40 ------- 2 4.2 2.0 6 92
+ 0.732672 2 3 tcp 1000 ------- 2 2.0 4.2 10 117
- 0.732672 2 3 tcp 1000 ------- 2 2.0 4.2 10 117
+ 0.732672 2 3 tcp 1000 ------- 2 2.0 4.2 11 118
- 0.734272 2 3 tcp 1000 ------- 2 2.0 4.2 11 118
- 0.736768 3 4 tcp 1040 ------- 1 1.0 4.1 21 87
r 0.736848 3 4 tcp 1040 ------- 0 0.0 4.0 22 76
+ 0.736848 4 3 ack 40 ------- 0 4.0 0.0 22 119
- 0.736848 4 3 ack 40 ------- 0 4.0 0.0 22 119
r 0.737248 4 3 ack 40 ------- 0 4.0 0.0 16 101
+ 0.737248 3 0 ack 40 ------- 0 4.0 0.0 16 101
- 0.737248 3 0 ack 40 ------- 0 4.0 0.0 16 101
r 0.738336 1 3 tcp 1040 ------- 1 1.0 4.1 29 111
+ 0.738336 3 4 tcp 1040 ------- 1 1.0 4.1 29 111
r 0.74 1 3 tcp 1040 ------- 1 1.0 4.1 30 112
+ 0.74 3 4 tcp 1040 ------- 1 1.0 4.1 30 112
r 0.740672 3 2 ack 40 ------- 2 4.2 2.0 7 95
+ 0.740672 2 3 tcp 1000 ------- 2 2.0 4.2 12 120
- 0.740672 2 3 tcp 1000 ------- 2 2.0 4.2 12 120
+ 0.740672 2 3 tcp 1000 ------- 2 2.0 4.2 13 121
- 0.742272 2 3 tcp 1000 ------- 2 2.0 4.2 13 121
- 0.745088 3 4 tcp 1040 ------- 1 1.0 4.1 22 88
r 0.745168 3 4 tcp 1040 ------- 1 1.0 4.1 15 78
+ 0.745168 4 3 ack 40 ------- 1 4.1 1.0 15 122
- 0.745168 4 3 ack 40 ------- 1 4.1 1.0 15 122
r 0.745568 4 3 ack 40 ------- 0 4.0 0.0 17 104
+ 0.745568 3 0 ack 40 ------- 0 4.0 0.0 17 104